 Gaussian 09, Revision D.01,
 Gaussian 09:  ES64L-G09RevD.01 24-Apr-2013

 ----------------------------------------------------------------------
 #pbe1pbe/tzvp scf=(xqc, maxconventionalcycles=2000) SCRF=(SMD,Solvent=
 water) opt
 ----------------------------------------------------------------------

 ------------------
 Dscr 1 Fe(III) S 4
 ------------------
 Symbolic Z-matrix:
 Charge =  1 Multiplicity = 4

 SCF Done:  E(UPBE1PBE) =  -2250.92306266     A.U. after   33 cycles
 SCF Done:  E(UPBE1PBE) =  -2250.95998693     A.U. after   25 cycles
 SCF Done:  E(UPBE1PBE) =  -2250.97664285     A.U. after   24 cycles
 SCF Done:  E(UPBE1PBE) =  -2250.97826262     A.U. after   22 cycles
 SCF Done:  E(UPBE1PBE) =  -2250.97821605     A.U. after   21 cycles
 SCF Done:  E(UPBE1PBE) =  -2250.97841738     A.U. after   20 cycles
 SCF Done:  E(UPBE1PBE) =  -2250.97751018     A.U. after   19 cycles
 SCF Done:  E(UPBE1PBE) =  -2250.97863801     A.U. after   20 cycles
 SCF Done:  E(UPBE1PBE) =  -2250.97838360     A.U. after   19 cycles
 SCF Done:  E(UPBE1PBE) =  -2250.97869034     A.U. after   19 cycles
 SCF Done:  E(UPBE1PBE) =  -2250.97826679     A.U. after   11 cycles
 SCF Done:  E(UPBE1PBE) =  -2250.97793397     A.U. after    9 cycles
 SCF Done:  E(UPBE1PBE) =  -2250.97853411     A.U. after   10 cycles
 SCF Done:  E(UPBE1PBE) =  -2250.97893490     A.U. after   10 cycles
 SCF Done:  E(UPBE1PBE) =  -2250.97953824     A.U. after   14 cycles
 SCF Done:  E(UPBE1PBE) =  -2250.97760477     A.U. after   13 cycles
 SCF Done:  E(UPBE1PBE) =  -2250.97806682     A.U. after   21 cycles
 SCF Done:  E(UPBE1PBE) =  -2250.97248846     A.U. after   25 cycles
 SCF Done:  E(UPBE1PBE) =  -2250.97595111     A.U. after   25 cycles
 SCF Done:  E(UPBE1PBE) =  -2250.97931872     A.U. after    8 cycles
 Optimization completed.
    -- Stationary point found.

                         Standard orientation:
 ---------------------------------------------------------------------
 Center     Atomic      Atomic             Coordinates (Angstroms)
 Number     Number       Type             X           Y           Z
 ---------------------------------------------------------------------
      1          6           0        3.038134    2.953906    0.001542
      2          6           0        1.948261    3.763054    0.001522
      3          6           0        2.558833    1.609455    0.000705
      4          6           0        0.799944    2.915229    0.000666
      5          7           0        1.185282    1.596777    0.000197
      6          6           0       -0.498865    3.373993   -0.000103
      7          6           0        3.373994    0.498985   -0.000128
      8          6           0        2.915274   -0.799918   -0.000926
      9          7           0        1.596737   -1.185285   -0.000165
     10          6           0        3.763042   -1.948283   -0.001882
     11          6           0       -1.609374    2.558852   -0.000869
     12          7           0       -1.596721    1.185222   -0.000013
     13          6           0       -2.953861    3.038127   -0.002038
     14          6           0        2.953947   -3.038187   -0.001532
     15          6           0        1.609429   -2.558935   -0.000621
     16          6           0        0.498901   -3.374097   -0.000099
     17          6           0       -3.763076    1.948286   -0.001578
     18          6           0       -2.915293    0.799906   -0.000593
     19          6           0       -0.799946   -2.915243    0.000627
     20          7           0       -1.185256   -1.596725    0.000286
     21          6           0       -1.948333   -3.762994    0.001439
     22          6           0       -3.038180   -2.953790    0.001395
     23          6           0       -2.558860   -1.609357    0.000614
     24          6           0       -3.374076   -0.498926    0.000028
     25         26           0        0.000024   -0.000012    0.000397
     26          1           0        4.083804    3.226487    0.002305
     27          1           0        1.906608    4.842870    0.002273
     28          1           0        4.445442    0.657464    0.000116
     29          1           0       -0.657503    4.445415   -0.000042
     30          1           0        4.842847   -1.906726   -0.002746
     31          1           0        3.226695   -4.083801   -0.002050
     32          1           0        0.657427   -4.445532   -0.000294
     33          1           0       -1.906864   -4.842818    0.001957
     34          1           0       -4.083823   -3.226466    0.001880
     35          1           0       -4.445506   -0.657463    0.000026
     36          1           0       -3.226520    4.083766   -0.002865
     37          1           0       -4.842888    1.906808   -0.002025
 ---------------------------------------------------------------------

 The electronic state is 4-A.
 Alpha  occ. eigenvalues -- -256.47698 -30.28680 -26.12552 -26.09636 -26.09636
 Alpha  occ. eigenvalues --  -14.42358 -14.42358 -14.42358 -14.42357 -10.27942
 Alpha  occ. eigenvalues --  -10.27942 -10.27942 -10.27941 -10.27941 -10.27940
 Alpha  occ. eigenvalues --  -10.27940 -10.27940 -10.24557 -10.24556 -10.24556
 Alpha  occ. eigenvalues --  -10.24555 -10.23914 -10.23914 -10.23914 -10.23913
 Alpha  occ. eigenvalues --  -10.23835 -10.23835 -10.23835 -10.23834  -3.68080
 Alpha  occ. eigenvalues --   -2.48381  -2.41544  -2.41544  -1.02449  -1.01395
 Alpha  occ. eigenvalues --   -1.01392  -1.00400  -0.86757  -0.83872  -0.83871
 Alpha  occ. eigenvalues --   -0.82063  -0.81271  -0.81271  -0.80966  -0.78592
 Alpha  occ. eigenvalues --   -0.76111  -0.69585  -0.69585  -0.63356  -0.61681
 Alpha  occ. eigenvalues --   -0.60953  -0.60952  -0.60950  -0.58709  -0.58146
 Alpha  occ. eigenvalues --   -0.55714  -0.55713  -0.55410  -0.52813  -0.52812
 Alpha  occ. eigenvalues --   -0.48512  -0.47631  -0.47630  -0.47191  -0.47091
 Alpha  occ. eigenvalues --   -0.46688  -0.45222  -0.45222  -0.44426  -0.44276
 Alpha  occ. eigenvalues --   -0.43498  -0.43487  -0.43486  -0.43220  -0.42477
 Alpha  occ. eigenvalues --   -0.42285  -0.42284  -0.40067  -0.40067  -0.39603
 Alpha  occ. eigenvalues --   -0.39179  -0.38934  -0.37821  -0.36182  -0.35853
 Alpha  occ. eigenvalues --   -0.35852  -0.31533  -0.31532  -0.29706  -0.28238
 Alpha  occ. eigenvalues --   -0.28162  -0.28161  -0.22711  -0.22667
 Alpha virt. eigenvalues --   -0.12700  -0.10218  -0.10218  -0.03483   0.02406
 Alpha virt. eigenvalues --    0.03537   0.04799   0.04800   0.06484   0.07102
 Alpha virt. eigenvalues --    0.07432   0.07933   0.07933   0.08604   0.09099

  Beta  occ. eigenvalues -- -256.47581 -30.22078 -26.05204 -26.05204 -26.04789
  Beta  occ. eigenvalues --  -14.42500 -14.42500 -14.42500 -14.42499 -10.27932
  Beta  occ. eigenvalues --  -10.27931 -10.27931 -10.27931 -10.27930 -10.27930
  Beta  occ. eigenvalues --  -10.27930 -10.27929 -10.24571 -10.24570 -10.24570
  Beta  occ. eigenvalues --  -10.24569 -10.23902 -10.23901 -10.23901 -10.23901
  Beta  occ. eigenvalues --  -10.23823 -10.23823 -10.23822 -10.23822  -3.51994
  Beta  occ. eigenvalues --   -2.27575  -2.27575  -2.24524  -1.02517  -1.01471
  Beta  occ. eigenvalues --   -1.01467  -1.00470  -0.86759  -0.83876  -0.83875
  Beta  occ. eigenvalues --   -0.82077  -0.81325  -0.81324  -0.80980  -0.78621
  Beta  occ. eigenvalues --   -0.76095  -0.69587  -0.69587  -0.63345  -0.61652
  Beta  occ. eigenvalues --   -0.60981  -0.60980  -0.60936  -0.58386  -0.58167
  Beta  occ. eigenvalues --   -0.55885  -0.55885  -0.55085  -0.52839  -0.52838
  Beta  occ. eigenvalues --   -0.47961  -0.47127  -0.47060  -0.45660  -0.45658
  Beta  occ. eigenvalues --   -0.45227  -0.45227  -0.44876  -0.43488  -0.43068
  Beta  occ. eigenvalues --   -0.42619  -0.42385  -0.42384  -0.42372  -0.41032
  Beta  occ. eigenvalues --   -0.40153  -0.40152  -0.39204  -0.38266  -0.36428
  Beta  occ. eigenvalues --   -0.36428  -0.36140  -0.31480  -0.31479  -0.31395
  Beta  occ. eigenvalues --   -0.29431  -0.29340  -0.29340  -0.28020  -0.22701
  Beta  occ. eigenvalues --   -0.22510
  Beta virt. eigenvalues --   -0.12707  -0.12706  -0.10891  -0.08581  -0.08580
  Beta virt. eigenvalues --   -0.03657  -0.03405   0.02441   0.04582   0.05242
  Beta virt. eigenvalues --    0.05242   0.06674   0.07550   0.07934   0.07934

 Mulliken charges and spin densities:
               1          2
     1  C   -0.200281   0.011923
     2  C   -0.200468   0.011950
     3  C    0.255737   0.009990
     4  C    0.255939   0.009990
     5  N   -0.052880  -0.071511
     6  C   -0.627452  -0.011863
     7  C   -0.627449  -0.011862
     8  C    0.255894   0.009990
     9  N   -0.052936  -0.071509
    10  C   -0.200464   0.011951
    11  C    0.255707   0.009989
    12  N   -0.052925  -0.071509
    13  C   -0.200295   0.011926
    14  C   -0.200294   0.011929
    15  C    0.255665   0.009990
    16  C   -0.627359  -0.011862
    17  C   -0.200486   0.011957
    18  C    0.255872   0.009989
    19  C    0.255870   0.009989
    20  N   -0.052884  -0.071511
    21  C   -0.200467   0.011956
    22  C   -0.200282   0.011925
    23  C    0.255694   0.009989
    24  C   -0.627371  -0.011861
    25  Fe   1.098974   3.163238
    26  H    0.169740  -0.000906
    27  H    0.169749  -0.000906
    28  H    0.205240   0.000517
    29  H    0.205241   0.000517
    30  H    0.169747  -0.000907
    31  H    0.169747  -0.000906
    32  H    0.205244   0.000517
    33  H    0.169748  -0.000907
    34  H    0.169741  -0.000906
    35  H    0.205246   0.000517
    36  H    0.169740  -0.000906
    37  H    0.169756  -0.000907
 Sum of Mulliken charges =   1.00000   3.00000

 Dipole moment (field-independent basis, Debye):
    X=             -0.0003    Y=              0.0001    Z=              0.0023  Tot=              0.0023
 Quadrupole moment (field-independent basis, Debye-Ang):
   XX=            -94.6443   YY=            -94.6470   ZZ=           -154.7870
   XY=             -0.0018   XZ=              0.0017   YZ=              0.0028

 Normal termination of Gaussian 09 at Wed Dec 12 16:37:01 2018.
